<?xml version="1.0"?>
<VTKFile type="PolyData" version="0.1" byte_order="LittleEndian" header_type="UInt32" compressor="vtkZLibDataCompressor">
  <PolyData>
    <Piece NumberOfPoints="584" NumberOfVerts="0" NumberOfLines="0" NumberOfStrips="0" NumberOfPolys="1284">
      <PointData>
      </PointData>
      <CellData>
        <DataArray type="Int32" Name="group" format="ascii" RangeMin="0" RangeMax="0">
          0 0 0 0 0 0
          0 0 0 0 0 0
          0 0 0 0 0 0
          0 0 0 0 0 0
          0 0 0 0 0 0
          0 0 0 0 0 0
          0 0 0 0 0 0
          0 0 0 0 0 0
          0 0 0 0 0 0
          0 0 0 0 0 0
          0 0 0 0 0 0
          0 0 0 0 0 0
          0 0 0 0 0 0
          0 0 0 0 0 0
          0 0 0 0 0 0
          0 0 0 0 0 0
          0 0 0 0 0 0
          0 0 0 0 0 0
          0 0 0 0 0 0
          0 0 0 0 0 0
          0 0 0 0 0 0
          0 0 0 0 0 0
          0 0 0 0 0 0
          0 0 0 0 0 0
          0 0 0 0 0 0
          0 0 0 0 0 0
          0 0 0 0 0 0
          0 0 0 0 0 0
          0 0 0 0 0 0
          0 0 0 0 0 0
          0 0 0 0 0 0
          0 0 0 0 0 0
          0 0 0 0 0 0
          0 0 0 0 0 0
          0 0 0 0 0 0
          0 0 0 0 0 0
          0 0 0 0 0 0
          0 0 0 0 0 0
          0 0 0 0 0 0
          0 0 0 0 0 0
          0 0 0 0 0 0
          0 0 0 0 0 0
          0 0 0 0 0 0
          0 0 0 0 0 0
          0 0 0 0 0 0
          0 0 0 0 0 0
          0 0 0 0 0 0
          0 0 0 0 0 0
          0 0 0 0 0 0
          0 0 0 0 0 0
          0 0 0 0 0 0
          0 0 0 0 0 0
          0 0 0 0 0 0
          0 0 0 0 0 0
          0 0 0 0 0 0
          0 0 0 0 0 0
          0 0 0 0 0 0
          0 0 0 0 0 0
          0 0 0 0 0 0
          0 0 0 0 0 0
          0 0 0 0 0 0
          0 0 0 0 0 0
          0 0 0 0 0 0
          0 0 0 0 0 0
          0 0 0 0 0 0
          0 0 0 0 0 0
          0 0 0 0 0 0
          0 0 0 0 0 0
          0 0 0 0 0 0
          0 0 0 0 0 0
          0 0 0 0 0 0
          0 0 0 0 0 0
          0 0 0 0 0 0
          0 0 0 0 0 0
          0 0 0 0 0 0
          0 0 0 0 0 0
          0 0 0 0 0 0
          0 0 0 0 0 0
          0 0 0 0 0 0
          0 0 0 0 0 0
          0 0 0 0 0 0
          0 0 0 0 0 0
          0 0 0 0 0 0
          0 0 0 0 0 0
          0 0 0 0 0 0
          0 0 0 0 0 0
          0 0 0 0 0 0
          0 0 0 0 0 0
          0 0 0 0 0 0
          0 0 0 0 0 0
          0 0 0 0 0 0
          0 0 0 0 0 0
          0 0 0 0 0 0
          0 0 0 0 0 0
          0 0 0 0 0 0
          0 0 0 0 0 0
          0 0 0 0 0 0
          0 0 0 0 0 0
          0 0 0 0 0 0
          0 0 0 0 0 0
          0 0 0 0 0 0
          0 0 0 0 0 0
          0 0 0 0 0 0
          0 0 0 0 0 0
          0 0 0 0 0 0
          0 0 0 0 0 0
          0 0 0 0 0 0
          0 0 0 0 0 0
          0 0 0 0 0 0
          0 0 0 0 0 0
          0 0 0 0 0 0
          0 0 0 0 0 0
          0 0 0 0 0 0
          0 0 0 0 0 0
          0 0 0 0 0 0
          0 0 0 0 0 0
          0 0 0 0 0 0
          0 0 0 0 0 0
          0 0 0 0 0 0
          0 0 0 0 0 0
          0 0 0 0 0 0
          0 0 0 0 0 0
          0 0 0 0 0 0
          0 0 0 0 0 0
          0 0 0 0 0 0
          0 0 0 0 0 0
          0 0 0 0 0 0
          0 0 0 0 0 0
          0 0 0 0 0 0
          0 0 0 0 0 0
          0 0 0 0 0 0
          0 0 0 0 0 0
          0 0 0 0 0 0
          0 0 0 0 0 0
          0 0 0 0 0 0
          0 0 0 0 0 0
          0 0 0 0 0 0
          0 0 0 0 0 0
          0 0 0 0 0 0
          0 0 0 0 0 0
          0 0 0 0 0 0
          0 0 0 0 0 0
          0 0 0 0 0 0
          0 0 0 0 0 0
          0 0 0 0 0 0
          0 0 0 0 0 0
          0 0 0 0 0 0
          0 0 0 0 0 0
          0 0 0 0 0 0
          0 0 0 0 0 0
          0 0 0 0 0 0
          0 0 0 0 0 0
          0 0 0 0 0 0
          0 0 0 0 0 0
          0 0 0 0 0 0
          0 0 0 0 0 0
          0 0 0 0 0 0
          0 0 0 0 0 0
          0 0 0 0 0 0
          0 0 0 0 0 0
          0 0 0 0 0 0
          0 0 0 0 0 0
          0 0 0 0 0 0
          0 0 0 0 0 0
          0 0 0 0 0 0
          0 0 0 0 0 0
          0 0 0 0 0 0
          0 0 0 0 0 0
          0 0 0 0 0 0
          0 0 0 0 0 0
          0 0 0 0 0 0
          0 0 0 0 0 0
          0 0 0 0 0 0
          0 0 0 0 0 0
          0 0 0 0 0 0
          0 0 0 0 0 0
          0 0 0 0 0 0
          0 0 0 0 0 0
          0 0 0 0 0 0
          0 0 0 0 0 0
          0 0 0 0 0 0
          0 0 0 0 0 0
          0 0 0 0 0 0
          0 0 0 0 0 0
          0 0 0 0 0 0
          0 0 0 0 0 0
          0 0 0 0 0 0
          0 0 0 0 0 0
          0 0 0 0 0 0
          0 0 0 0 0 0
          0 0 0 0 0 0
          0 0 0 0 0 0
          0 0 0 0 0 0
          0 0 0 0 0 0
          0 0 0 0 0 0
          0 0 0 0 0 0
          0 0 0 0 0 0
          0 0 0 0 0 0
          0 0 0 0 0 0
          0 0 0 0 0 0
          0 0 0 0 0 0
          0 0 0 0 0 0
          0 0 0 0 0 0
          0 0 0 0 0 0
          0 0 0 0 0 0
          0 0 0 0 0 0
          0 0 0 0 0 0
          0 0 0 0 0 0
          0 0 0 0 0 0
          0 0 0 0 0 0
          0 0 0 0 0 0
          0 0 0 0 0 0
          0 0 0 0 0 0
          0 0 0 0 0 0
        </DataArray>
      </CellData>
      <Points>
        <DataArray type="Float32" Name="Points" NumberOfComponents="3" format="ascii" RangeMin="3.08197643263071" RangeMax="74.79871740305455">
          53.58747100830078 -44.612098693847656 0 50.74494552612305 -47.742496490478516 0
          53.58747100830078 -51.3376350402832 0 46.87119674682617 -51.3376350402832 0
          43.681365966796875 -48.127105712890625 0 28.250486373901367 -48.127105712890625 0
          17.377273559570312 -51.3376350402832 0 24.991193771362305 -51.3376350402832 0
          21.064014434814453 -47.63564682006836 0 9.538946151733398 -43.62916946411133 0
          -9.242063522338867 -43.62916946411133 0 -24.68362808227539 -51.3376350402832 0
          -17.0697078704834 -51.3376350402832 0 -20.751102447509766 -47.63564682006836 0
          -27.94291877746582 -48.127105712890625 0 -43.36309814453125 -48.127105712890625 0
          -53.274566650390625 -51.3376350402832 0 -46.55293655395508 -51.3376350402832 0
          -50.432029724121094 -47.737152099609375 0 -53.274566650390625 -44.60140609741211 0
          43.681365966796875 -43.62916946411133 0 28.250486373901367 -43.62916946411133 0
          -27.94291877746582 -43.62916946411133 0 -43.36309814453125 -43.62916946411133 0
          49.179412841796875 -46.022377014160156 0 -48.86650848388672 -46.017032623291016 0
          22.741744995117188 -45.95827102661133 0 17.051342010498047 -43.623836517333984 0
          -16.73843002319336 -43.623836517333984 0 -22.4288330078125 -45.95827102661133 0
          49.179412841796875 -43.62916946411133 0 -48.86650848388672 -43.623836517333984 0
          22.741744995117188 -43.623836517333984 0 -22.4288330078125 -43.623836517333984 0
          53.58747100830078 -38.12159729003906 0 53.58747100830078 -43.62916946411133 0
          39.1984977722168 -43.62916946411133 0 36.03538513183594 -40.45069885253906 0
          32.87226867675781 -43.62916946411133 0 -32.521949768066406 -43.62916946411133 0
          -35.74917984008789 -40.45069885253906 0 -38.97642517089844 -43.62916946411133 0
          -53.274566650390625 -43.623836517333984 0 -53.274566650390625 -38.11625289916992 0
          49.179412841796875 -38.12159729003906 0 49.179412841796875 -26.817975997924805 0
          43.670677185058594 -38.11625289916992 0 43.670677185058594 -32.4804801940918 0
          41.33039855957031 -38.11625289916992 0 39.684722900390625 -36.4709358215332 0
          30.59075927734375 -38.11625289916992 0 32.23643493652344 -36.4709358215332 0
          28.250486373901367 -38.11625289916992 0 28.250486373901367 -32.4804801940918 0
          22.741744995117188 -38.11625289916992 0 22.741744995117188 -26.577592849731445 0
          11.184622764587402 -38.11625289916992 0 3.0363924503326416 -29.943042755126953 0
          4.404222011566162 -38.11625289916992 0 0.40758782625198364 -34.12044906616211 0
          -3.5890607833862305 -38.11625289916992 0 -10.871702194213867 -38.11625289916992 0
          -2.7234725952148438 -29.943042755126953 0 -22.4288330078125 -38.11625289916992 0
          -22.4288330078125 -26.577592849731445 0 -27.93757438659668 -38.11625289916992 0
          -27.93757438659668 -32.485809326171875 0 -30.27784538269043 -38.11625289916992 0
          -31.92353057861328 -36.4709358215332 0 -41.017494201660156 -38.11625289916992 0
          -39.371795654296875 -36.4709358215332 0 -43.35776901245117 -38.11625289916992 0
          -43.35776901245117 -32.4804801940918 0 -48.86650848388672 -38.11625289916992 0
          -48.86650848388672 -26.839359283447266 0 35.9605827331543 -32.720863342285156 0
          -35.64766311645508 -32.720863342285156 0 43.670677185058594 -24.937593460083008 0
          28.250486373901367 -24.937593460083008 0 -27.93757438659668 -24.937593460083008 0
          -43.35776901245117 -24.937593460083008 0 4.772900581359863 -28.201539993286133 0
          -4.459980487823486 -28.201539993286133 0 12.824946403503418 -16.630847930908203 0
          8.416887283325195 -23.799772262573242 0 12.824946403503418 -28.201539993286133 0
          0.7067973017692566 -27.03167152404785 0 -12.512040138244629 -28.201539993286133 0
          -7.003299713134766 -23.799772262573242 0 -12.512040138244629 -16.630847930908203 0
          3.9019734859466553 -23.799772262573242 0 -2.4883718490600586 -23.799772262573242 0
          -53.274566650390625 -21.983484268188477 0 53.58747100830078 -22.138418197631836 0
          -27.932228088378906 -24.937593460083008 0 49.179412841796875 -19.312498092651367 0
          43.670677185058594 -13.8850679397583 0 28.250486373901367 -13.8850679397583 0
          22.741744995117188 -19.31785774230957 0 -22.4288330078125 -19.31785774230957 0
          -27.932228088378906 -13.8850679397583 0 -43.35776901245117 -13.8850679397583 0
          -48.86650848388672 -19.05076026916504 0 8.416887283325195 -12.768588066101074 0
          -7.003299713134766 -12.768588066101074 0 53.58747100830078 -14.632940292358398 0
          -53.274566650390625 -14.194906234741211 0 22.741744995117188 -8.388175964355469 0
          12.824946403503418 -9.93735122680664 0 -12.512040138244629 -9.93735122680664 0
          -22.4288330078125 -8.388175964355469 0 49.179412841796875 -8.382837295532227 0
          -48.86650848388672 -8.388175964355469 0 39.150413513183594 -13.8850679397583 0
          35.9605827331543 -10.663860321044922 0 32.77074432373047 -13.8850679397583 0
          -32.45783996582031 -13.8850679397583 0 -35.64766311645508 -10.663860321044922 0
          -38.837486267089844 -13.8850679397583 0 0.7067973017692566 -4.980001926422119 0
          30.799144744873047 -8.388175964355469 0 12.824946403503418 -3.329324960708618 0
          8.416887283325195 -4.654140472412109 0 -7.008638858795166 -4.648794651031494 0
          -12.512040138244629 -3.329324960708618 0 41.998287200927734 -8.382837295532227 0
          32.519622802734375 -6.758868217468262 0 -30.486225128173828 -8.388175964355469 0
          -32.20670700073242 -6.758868217468262 0 -41.68538284301758 -8.388175964355469 0
          -40.15190505981445 -6.758868217468262 0 40.464820861816406 -6.7535295486450195 0
          30.06180191040039 -4.42976713180542 0 -29.748882293701172 -4.42976713180542 0
          -42.34256362915039 -4.42976713180542 0 42.65548324584961 -4.4244279861450195 0
          8.416887283325195 -3.3400096893310547 0 4.420252799987793 -0.6529995203018188 0
          -3.0120043754577637 -0.6529995203018188 0 -7.008638858795166 -3.3346710205078125 0
          36.20102310180664 -3.0034635066986084 0 26.091869354248047 -0.674362063407898 0
          -25.778963088989258 -0.674362063407898 0 -35.39120101928711 -3.0034635066986084 0
          -45.87971878051758 -0.674362063407898 0 46.192623138427734 -0.6690231561660767 0
          8.416887283325195 2.028671979904175 0 -7.008638858795166 2.034010648727417 0
          12.824946403503418 1.9806008338928223 0 -12.512040138244629 1.9806008338928223 0
          38.55198669433594 -0.6529995203018188 0 33.850059509277344 -0.6529995203018188 0
          -33.04023361206055 -0.6529995203018188 0 -37.742164611816406 -0.6529995203018188 0
          30.06180191040039 3.081042766571045 0 -29.748882293701172 3.081042766571045 0
          -42.34256362915039 3.081042766571045 0 42.65548324584961 3.086381673812866 0
          36.20102310180664 1.6974644660949707 0 8.416887283325195 3.3427956104278564 0
          -7.008638858795166 3.3481414318084717 0 -35.39120101928711 1.6974644660949707 0
          12.824946403503418 8.58862018585205 0 -12.512040138244629 8.58862018585205 0
          32.519622802734375 5.410144329071045 0 -32.20670700073242 5.410144329071045 0
          -40.15190505981445 5.410144329071045 0 40.464820861816406 5.415482997894287 0
          0.7067973017692566 3.641955614089966 0 8.416887283325195 11.4305419921875 0
          -7.003299713134766 11.4305419921875 0 30.799144744873047 7.039437770843506 0
          -30.486225128173828 7.039437770843506 0 -41.68538284301758 7.039437770843506 0
          41.998287200927734 7.044790744781494 0 22.741744995117188 7.039437770843506 0
          35.955238342285156 9.325814247131348 0 28.245140075683594 12.547021865844727 0
          22.741744995117188 17.969120025634766 0 -22.4288330078125 17.969120025634766 0
          -22.4288330078125 7.039437770843506 0 -27.94291877746582 12.547021865844727 0
          -35.658355712890625 9.325814247131348 0 -48.86650848388672 7.039437770843506 0
          -43.368446350097656 12.547021865844727 0 -48.86650848388672 17.969120025634766 0
          49.179412841796875 17.707366943359375 0 49.179412841796875 7.044790744781494 0
          43.670677185058594 12.547021865844727 0 39.14506912231445 12.547021865844727 0
          32.76540756225586 12.547021865844727 0 -32.4685173034668 12.547021865844727 0
          -38.84819412231445 12.547021865844727 0 12.824946403503418 15.292801856994629 0
          8.416887283325195 22.461727142333984 0 -7.003299713134766 22.461727142333984 0
          -12.512040138244629 15.292801856994629 0 43.670677185058594 23.59956169128418 0
          28.245140075683594 23.59956169128418 0 -27.94291877746582 23.59956169128418 0
          -43.368446350097656 23.59956169128418 0 53.58747100830078 20.640106201171875 0
          53.58747100830078 12.851506233215332 0 -53.274566650390625 20.795024871826172 0
          -53.274566650390625 13.289554595947266 0 22.741744995117188 25.239547729492188 0
          12.824946403503418 26.863508224487305 0 -12.512040138244629 26.863508224487305 0
          -22.4288330078125 25.239547729492188 0 49.179412841796875 25.495954513549805 0
          -48.86650848388672 25.474597930908203 0 3.9019734859466553 22.461727142333984 0
          0.7067973017692566 25.69361114501953 0 -2.4883718490600586 22.461727142333984 0
          35.9605827331543 31.382816314697266 0 28.250486373901367 23.59956169128418 0
          -35.65300750732422 31.382816314697266 0 -43.36309814453125 23.59956169128418 0
          28.250486373901367 31.147764205932617 0 22.741744995117188 36.77820587158203 0
          -22.4288330078125 36.77820587158203 0 -27.93757438659668 31.142433166503906 0
          -43.36309814453125 31.147764205932617 0 -48.86650848388672 36.77820587158203 0
          49.179412841796875 36.783538818359375 0 43.670677185058594 31.142433166503906 0
          4.772900581359863 26.863508224487305 0 3.0363924503326416 28.604995727539062 0
          -4.459980487823486 26.863508224487305 0 -2.7234725952148438 28.604995727539062 0
          11.184622764587402 36.77820587158203 0 0.41292667388916016 32.782405853271484 0
          -10.871702194213867 36.77820587158203 0 43.670677185058594 36.77820587158203 0
          39.684722900390625 35.13287353515625 0 -27.93757438659668 36.77820587158203 0
          -31.92353057861328 35.13287353515625 0 32.23643493652344 35.13287353515625 0
          28.250486373901367 36.77820587158203 0 -39.37715530395508 35.13287353515625 0
          -43.36309814453125 36.77820587158203 0 4.4095611572265625 36.77820587158203 0
          -3.583707809448242 36.77820587158203 0 41.33039855957031 36.77820587158203 0
          30.59075927734375 36.77820587158203 0 -30.27784538269043 36.77820587158203 0
          -41.0228271484375 36.77820587158203 0 -53.274566650390625 36.77820587158203 0
          -35.71177291870117 39.11265182495117 0 -53.274566650390625 42.2911376953125 0
          53.58747100830078 42.2911376953125 0 53.58747100830078 36.783538818359375 0
          36.056758880615234 39.11265182495117 0 39.283992767333984 42.2911376953125 0
          32.82952117919922 42.2911376953125 0 22.741744995117188 42.285789489746094 0
          17.051342010498047 42.285789489746094 0 -16.73843002319336 42.285789489746094 0
          -22.4288330078125 42.285789489746094 0 -32.554012298583984 42.2911376953125 0
          -38.86954879760742 42.2911376953125 0 28.250486373901367 42.2911376953125 0
          22.741744995117188 44.62022399902344 0 21.064014434814453 46.29761505126953 0
          9.549630165100098 42.2911376953125 0 -9.231371879577637 42.2911376953125 0
          -20.751102447509766 46.29761505126953 0 -22.4288330078125 44.62022399902344 0
          -27.932228088378906 42.2911376953125 0 49.179412841796875 42.2911376953125 0
          49.179412841796875 44.68433380126953 0 43.670677185058594 42.2911376953125 0
          43.670677185058594 46.789058685302734 0 28.250486373901367 46.789058685302734 0
          17.377273559570312 49.99959182739258 0 -17.05901527404785 49.99959182739258 0
          -27.932228088378906 46.789058685302734 0 -43.352420806884766 42.2911376953125 0
          -43.352420806884766 46.789058685302734 0 -48.86650848388672 42.2911376953125 0
          -48.86650848388672 44.68433380126953 0 -53.269222259521484 49.99959182739258 0
          -53.274566650390625 43.268707275390625 0 -53.269222259521484 43.268707275390625 0
          -50.432029724121094 46.40443420410156 0 53.58747100830078 49.99959182739258 0
          50.74494552612305 46.40443420410156 0 53.58747100830078 43.274051666259766 0
          46.860511779785156 49.99959182739258 0 24.991193771362305 49.99959182739258 0
          -24.672935485839844 49.99959182739258 0 -46.542259216308594 49.99959182739258 0
          53.58747100830078 -44.612098693847656 9.363669395446777 53.58747100830078 -51.3376350402832 9.363669395446777
          50.74494552612305 -47.742496490478516 9.363669395446777 46.87119674682617 -51.3376350402832 9.363669395446777
          43.681365966796875 -48.127105712890625 9.363669395446777 28.250486373901367 -48.127105712890625 9.363669395446777
          24.991193771362305 -51.3376350402832 9.363669395446777 17.377273559570312 -51.3376350402832 9.363669395446777
          21.064014434814453 -47.63564682006836 9.363669395446777 9.538946151733398 -43.62916946411133 9.363669395446777
          -9.242063522338867 -43.62916946411133 9.363669395446777 -17.0697078704834 -51.3376350402832 9.363669395446777
          -24.68362808227539 -51.3376350402832 9.363669395446777 -20.751102447509766 -47.63564682006836 9.363669395446777
          -27.94291877746582 -48.127105712890625 9.363669395446777 -43.36309814453125 -48.127105712890625 9.363669395446777
          -46.55293655395508 -51.3376350402832 9.363669395446777 -53.274566650390625 -51.3376350402832 9.363669395446777
          -50.432029724121094 -47.737152099609375 9.363669395446777 -53.274566650390625 -44.60140609741211 9.363669395446777
          43.681365966796875 -43.62916946411133 9.363669395446777 28.250486373901367 -43.62916946411133 9.363669395446777
          -27.94291877746582 -43.62916946411133 9.363669395446777 -43.36309814453125 -43.62916946411133 9.363669395446777
          49.179412841796875 -46.022377014160156 9.363669395446777 -48.86650848388672 -46.017032623291016 9.363669395446777
          22.741744995117188 -45.95827102661133 9.363669395446777 17.051342010498047 -43.623836517333984 9.363669395446777
          -16.73843002319336 -43.623836517333984 9.363669395446777 -22.4288330078125 -45.95827102661133 9.363669395446777
          49.179412841796875 -43.62916946411133 9.363669395446777 -48.86650848388672 -43.623836517333984 9.363669395446777
          22.741744995117188 -43.623836517333984 9.363669395446777 -22.4288330078125 -43.623836517333984 9.363669395446777
          53.58747100830078 -38.12159729003906 9.363669395446777 53.58747100830078 -43.62916946411133 9.363669395446777
          39.1984977722168 -43.62916946411133 9.363669395446777 36.03538513183594 -40.45069885253906 9.363669395446777
          32.87226867675781 -43.62916946411133 9.363669395446777 -32.521949768066406 -43.62916946411133 9.363669395446777
          -35.74917984008789 -40.45069885253906 9.363669395446777 -38.97642517089844 -43.62916946411133 9.363669395446777
          -53.274566650390625 -43.623836517333984 9.363669395446777 -53.274566650390625 -38.11625289916992 9.363669395446777
          49.179412841796875 -38.12159729003906 9.363669395446777 49.179412841796875 -26.817975997924805 9.363669395446777
          43.670677185058594 -38.11625289916992 9.363669395446777 43.670677185058594 -32.4804801940918 9.363669395446777
          41.33039855957031 -38.11625289916992 9.363669395446777 39.684722900390625 -36.4709358215332 9.363669395446777
          30.59075927734375 -38.11625289916992 9.363669395446777 32.23643493652344 -36.4709358215332 9.363669395446777
          28.250486373901367 -38.11625289916992 9.363669395446777 28.250486373901367 -32.4804801940918 9.363669395446777
          22.741744995117188 -38.11625289916992 9.363669395446777 22.741744995117188 -26.577592849731445 9.363669395446777
          11.184622764587402 -38.11625289916992 9.363669395446777 3.0363924503326416 -29.943042755126953 9.363669395446777
          4.404222011566162 -38.11625289916992 9.363669395446777 0.40758782625198364 -34.12044906616211 9.363669395446777
          -3.5890607833862305 -38.11625289916992 9.363669395446777 -10.871702194213867 -38.11625289916992 9.363669395446777
          -2.7234725952148438 -29.943042755126953 9.363669395446777 -22.4288330078125 -38.11625289916992 9.363669395446777
          -22.4288330078125 -26.577592849731445 9.363669395446777 -27.93757438659668 -38.11625289916992 9.363669395446777
          -27.93757438659668 -32.485809326171875 9.363669395446777 -30.27784538269043 -38.11625289916992 9.363669395446777
          -31.92353057861328 -36.4709358215332 9.363669395446777 -41.017494201660156 -38.11625289916992 9.363669395446777
          -39.371795654296875 -36.4709358215332 9.363669395446777 -43.35776901245117 -38.11625289916992 9.363669395446777
          -43.35776901245117 -32.4804801940918 9.363669395446777 -48.86650848388672 -38.11625289916992 9.363669395446777
          -48.86650848388672 -26.839359283447266 9.363669395446777 35.9605827331543 -32.720863342285156 9.363669395446777
          -35.64766311645508 -32.720863342285156 9.363669395446777 43.670677185058594 -24.937593460083008 9.363669395446777
          28.250486373901367 -24.937593460083008 9.363669395446777 -27.93757438659668 -24.937593460083008 9.363669395446777
          -43.35776901245117 -24.937593460083008 9.363669395446777 4.772900581359863 -28.201539993286133 9.363669395446777
          -4.459980487823486 -28.201539993286133 9.363669395446777 12.824946403503418 -16.630847930908203 9.363669395446777
          12.824946403503418 -28.201539993286133 9.363669395446777 8.416887283325195 -23.799772262573242 9.363669395446777
          0.7067973017692566 -27.03167152404785 9.363669395446777 -12.512040138244629 -28.201539993286133 9.363669395446777
          -7.003299713134766 -23.799772262573242 9.363669395446777 -12.512040138244629 -16.630847930908203 9.363669395446777
          3.9019734859466553 -23.799772262573242 9.363669395446777 -2.4883718490600586 -23.799772262573242 9.363669395446777
          -53.274566650390625 -21.983484268188477 9.363669395446777 53.58747100830078 -22.138418197631836 9.363669395446777
          -27.932228088378906 -24.937593460083008 9.363669395446777 49.179412841796875 -19.312498092651367 9.363669395446777
          43.670677185058594 -13.8850679397583 9.363669395446777 28.250486373901367 -13.8850679397583 9.363669395446777
          22.741744995117188 -19.31785774230957 9.363669395446777 -22.4288330078125 -19.31785774230957 9.363669395446777
          -27.932228088378906 -13.8850679397583 9.363669395446777 -43.35776901245117 -13.8850679397583 9.363669395446777
          -48.86650848388672 -19.05076026916504 9.363669395446777 8.416887283325195 -12.768588066101074 9.363669395446777
          -7.003299713134766 -12.768588066101074 9.363669395446777 53.58747100830078 -14.632940292358398 9.363669395446777
          -53.274566650390625 -14.194906234741211 9.363669395446777 22.741744995117188 -8.388175964355469 9.363669395446777
          12.824946403503418 -9.93735122680664 9.363669395446777 -12.512040138244629 -9.93735122680664 9.363669395446777
          -22.4288330078125 -8.388175964355469 9.363669395446777 49.179412841796875 -8.382837295532227 9.363669395446777
          -48.86650848388672 -8.388175964355469 9.363669395446777 39.150413513183594 -13.8850679397583 9.363669395446777
          35.9605827331543 -10.663860321044922 9.363669395446777 32.77074432373047 -13.8850679397583 9.363669395446777
          -32.45783996582031 -13.8850679397583 9.363669395446777 -35.64766311645508 -10.663860321044922 9.363669395446777
          -38.837486267089844 -13.8850679397583 9.363669395446777 0.7067973017692566 -4.980001926422119 9.363669395446777
          30.799144744873047 -8.388175964355469 9.363669395446777 12.824946403503418 -3.329324960708618 9.363669395446777
          8.416887283325195 -4.654140472412109 9.363669395446777 -7.008638858795166 -4.648794651031494 9.363669395446777
          -12.512040138244629 -3.329324960708618 9.363669395446777 41.998287200927734 -8.382837295532227 9.363669395446777
          32.519622802734375 -6.758868217468262 9.363669395446777 -30.486225128173828 -8.388175964355469 9.363669395446777
          -32.20670700073242 -6.758868217468262 9.363669395446777 -41.68538284301758 -8.388175964355469 9.363669395446777
          -40.15190505981445 -6.758868217468262 9.363669395446777 40.464820861816406 -6.7535295486450195 9.363669395446777
          30.06180191040039 -4.42976713180542 9.363669395446777 -29.748882293701172 -4.42976713180542 9.363669395446777
          -42.34256362915039 -4.42976713180542 9.363669395446777 42.65548324584961 -4.4244279861450195 9.363669395446777
          8.416887283325195 -3.3400096893310547 9.363669395446777 4.420252799987793 -0.6529995203018188 9.363669395446777
          -3.0120043754577637 -0.6529995203018188 9.363669395446777 -7.008638858795166 -3.3346710205078125 9.363669395446777
          36.20102310180664 -3.0034635066986084 9.363669395446777 26.091869354248047 -0.674362063407898 9.363669395446777
          -25.778963088989258 -0.674362063407898 9.363669395446777 -35.39120101928711 -3.0034635066986084 9.363669395446777
          -45.87971878051758 -0.674362063407898 9.363669395446777 46.192623138427734 -0.6690231561660767 9.363669395446777
          8.416887283325195 2.028671979904175 9.363669395446777 -7.008638858795166 2.034010648727417 9.363669395446777
          12.824946403503418 1.9806008338928223 9.363669395446777 -12.512040138244629 1.9806008338928223 9.363669395446777
          38.55198669433594 -0.6529995203018188 9.363669395446777 33.850059509277344 -0.6529995203018188 9.363669395446777
          -33.04023361206055 -0.6529995203018188 9.363669395446777 -37.742164611816406 -0.6529995203018188 9.363669395446777
          30.06180191040039 3.081042766571045 9.363669395446777 -29.748882293701172 3.081042766571045 9.363669395446777
          -42.34256362915039 3.081042766571045 9.363669395446777 42.65548324584961 3.086381673812866 9.363669395446777
          36.20102310180664 1.6974644660949707 9.363669395446777 8.416887283325195 3.3427956104278564 9.363669395446777
          -7.008638858795166 3.3481414318084717 9.363669395446777 -35.39120101928711 1.6974644660949707 9.363669395446777
          12.824946403503418 8.58862018585205 9.363669395446777 -12.512040138244629 8.58862018585205 9.363669395446777
          32.519622802734375 5.410144329071045 9.363669395446777 -32.20670700073242 5.410144329071045 9.363669395446777
          -40.15190505981445 5.410144329071045 9.363669395446777 40.464820861816406 5.415482997894287 9.363669395446777
          0.7067973017692566 3.641955614089966 9.363669395446777 8.416887283325195 11.4305419921875 9.363669395446777
          -7.003299713134766 11.4305419921875 9.363669395446777 30.799144744873047 7.039437770843506 9.363669395446777
          -30.486225128173828 7.039437770843506 9.363669395446777 -41.68538284301758 7.039437770843506 9.363669395446777
          41.998287200927734 7.044790744781494 9.363669395446777 22.741744995117188 7.039437770843506 9.363669395446777
          35.955238342285156 9.325814247131348 9.363669395446777 28.245140075683594 12.547021865844727 9.363669395446777
          22.741744995117188 17.969120025634766 9.363669395446777 -22.4288330078125 17.969120025634766 9.363669395446777
          -22.4288330078125 7.039437770843506 9.363669395446777 -27.94291877746582 12.547021865844727 9.363669395446777
          -35.658355712890625 9.325814247131348 9.363669395446777 -48.86650848388672 7.039437770843506 9.363669395446777
          -43.368446350097656 12.547021865844727 9.363669395446777 -48.86650848388672 17.969120025634766 9.363669395446777
          49.179412841796875 17.707366943359375 9.363669395446777 49.179412841796875 7.044790744781494 9.363669395446777
          43.670677185058594 12.547021865844727 9.363669395446777 39.14506912231445 12.547021865844727 9.363669395446777